 Entering Gaussian System, Link 0=g09
 Input=pbt_e_-0.gjf
 Output=pbt_e_-0.log
 Initial command:
 /opt/versatushpc/softwares/gaussian/09d01-pgi-14.3/g09/l1.exe "/scratch/tarcius/Gau-16495.inp" -scrdir="/scratch/tarcius/"
 Entering Link 1 = /opt/versatushpc/softwares/gaussian/09d01-pgi-14.3/g09/l1.exe PID=     16496.
  
 Copyright (c) 1988,1990,1992,1993,1995,1998,2003,2009,2013,
            Gaussian, Inc.  All Rights Reserved.
  
 This is part of the Gaussian(R) 09 program.  It is based on
 the Gaussian(R) 03 system (copyright 2003, Gaussian, Inc.),
 the Gaussian(R) 98 system (copyright 1998, Gaussian, Inc.),
 the Gaussian(R) 94 system (copyright 1995, Gaussian, Inc.),
 the Gaussian 92(TM) system (copyright 1992, Gaussian, Inc.),
 the Gaussian 90(TM) system (copyright 1990, Gaussian, Inc.),
 the Gaussian 88(TM) system (copyright 1988, Gaussian, Inc.),
 the Gaussian 86(TM) system (copyright 1986, Carnegie Mellon
 University), and the Gaussian 82(TM) system (copyright 1983,
 Carnegie Mellon University). Gaussian is a federally registered
 trademark of Gaussian, Inc.
  
 This software contains proprietary and confidential information,
 including trade secrets, belonging to Gaussian, Inc.
  
 This software is provided under written license and may be
 used, copied, transmitted, or stored only in accord with that
 written license.
  
 The following legend is applicable only to US Government
 contracts under FAR:
  
                    RESTRICTED RIGHTS LEGEND
  
 Use, reproduction and disclosure by the US Government is
 subject to restrictions as set forth in subparagraphs (a)
 and (c) of the Commercial Computer Software - Restricted
 Rights clause in FAR 52.227-19.
  
 Gaussian, Inc.
 340 Quinnipiac St., Bldg. 40, Wallingford CT 06492
  
  
 ---------------------------------------------------------------
 Warning -- This program may not be used in any manner that
 competes with the business of Gaussian, Inc. or will provide
 assistance to any competitor of Gaussian, Inc.  The licensee
 of this program is prohibited from giving any competitor of
 Gaussian, Inc. access to this program.  By using this program,
 the user acknowledges that Gaussian, Inc. is engaged in the
 business of creating and licensing software in the field of
 computational chemistry and represents and warrants to the
 licensee that it is not a competitor of Gaussian, Inc. and that
 it will not use this program in any manner prohibited above.
 ---------------------------------------------------------------
  

 Cite this work as:
 Gaussian 09, Revision D.01,
 M. J. Frisch, G. W. Trucks, H. B. Schlegel, G. E. Scuseria, 
 M. A. Robb, J. R. Cheeseman, G. Scalmani, V. Barone, B. Mennucci, 
 G. A. Petersson, H. Nakatsuji, M. Caricato, X. Li, H. P. Hratchian, 
 A. F. Izmaylov, J. Bloino, G. Zheng, J. L. Sonnenberg, M. Hada, 
 M. Ehara, K. Toyota, R. Fukuda, J. Hasegawa, M. Ishida, T. Nakajima, 
 Y. Honda, O. Kitao, H. Nakai, T. Vreven, J. A. Montgomery, Jr., 
 J. E. Peralta, F. Ogliaro, M. Bearpark, J. J. Heyd, E. Brothers, 
 K. N. Kudin, V. N. Staroverov, T. Keith, R. Kobayashi, J. Normand, 
 K. Raghavachari, A. Rendell, J. C. Burant, S. S. Iyengar, J. Tomasi, 
 M. Cossi, N. Rega, J. M. Millam, M. Klene, J. E. Knox, J. B. Cross, 
 V. Bakken, C. Adamo, J. Jaramillo, R. Gomperts, R. E. Stratmann, 
 O. Yazyev, A. J. Austin, R. Cammi, C. Pomelli, J. W. Ochterski, 
 R. L. Martin, K. Morokuma, V. G. Zakrzewski, G. A. Voth, 
 P. Salvador, J. J. Dannenberg, S. Dapprich, A. D. Daniels, 
 O. Farkas, J. B. Foresman, J. V. Ortiz, J. Cioslowski, 
 and D. J. Fox, Gaussian, Inc., Wallingford CT, 2013.
 
 ******************************************
 Gaussian 09:  ES64L-G09RevD.01 24-Apr-2013
                27-Sep-2016 
 ******************************************
 %chk=pbt_e_-0.chk
 %mem=7GB
 %NprocShared=4
 Will use up to    4 processors via shared memory.
 ----------------------------------------------------------------------
 # td=(singlets,nstates=6,root=1) cam-b3lyp/aug-cc-pvdz nosymm density=
 all Field=x+0
 ----------------------------------------------------------------------
 1/30=1,38=1/1;
 2/12=2,15=1,17=6,18=5,40=1/2;
 3/5=16,7=10,11=9,14=1,16=1,25=1,30=1,71=1,74=-40/1,2,8,3;
 4//1;
 5/5=2,38=5/2;
 8/6=1,10=1,107=1,108=6/1;
 9/8=1,15=1,30=10,41=6,42=1,48=1,70=2/14;
 10/5=4,13=10,31=1/2;
 6/7=2,8=2,9=2,10=2,22=-2/1;
 99/5=1,9=1/99;
 ---------------------------------------------------------
 Calculo da energia de absorcao com campo eletrico externo
 ---------------------------------------------------------
 Symbolic Z-matrix:
 Charge =  0 Multiplicity = 1
 C                    -1.0444   -0.30286  -1.18283 
 C                    -0.32313  -0.00067  -0.0001 
 C                    -1.04402   0.30125   1.18301 
 C                    -2.40856   0.31174   1.18863 
 C                    -3.19406   0.00041   0.00007 
 C                    -2.40899  -0.31237  -1.18836 
 H                    -2.96066   0.58536   2.08677 
 H                    -0.51044   0.59472   2.08756 
 H                    -2.96133  -0.58616  -2.08629 
 N                     1.08104  -0.00026  -0.00023 
 C                     1.78554   0.32811  -1.12515 
 C                     3.16275   0.31163  -1.14904 
 C                     3.88575   0.00082   0.00023 
 C                     3.16276  -0.31093   1.14912 
 C                     1.78551  -0.32854   1.12456 
 H                     1.19401   0.64233  -1.97655 
 H                     3.66415   0.57974  -2.07678 
 H                     4.97327   0.00144   0.00028 
 H                     3.66394  -0.57874   2.07706 
 H                     1.19406  -0.64335   1.97578 
 H                    -0.51108  -0.5973   -2.08721 
 O                    -4.43351   0.00152   0.00002 
 
                          Input orientation:                          
 ---------------------------------------------------------------------
 Center     Atomic      Atomic             Coordinates (Angstroms)
 Number     Number       Type             X           Y           Z
 ---------------------------------------------------------------------
      1          6           0       -1.044398   -0.302857   -1.182833
      2          6           0       -0.323134   -0.000673   -0.000100
      3          6           0       -1.044024    0.301245    1.183012
      4          6           0       -2.408560    0.311744    1.188634
      5          6           0       -3.194057    0.000414    0.000070
      6          6           0       -2.408990   -0.312366   -1.188362
      7          1           0       -2.960663    0.585360    2.086774
      8          1           0       -0.510436    0.594715    2.087558
      9          1           0       -2.961331   -0.586162   -2.086292
     10          7           0        1.081037   -0.000264   -0.000230
     11          6           0        1.785535    0.328107   -1.125150
     12          6           0        3.162754    0.311633   -1.149038
     13          6           0        3.885754    0.000818    0.000227
     14          6           0        3.162765   -0.310926    1.149125
     15          6           0        1.785509   -0.328536    1.124560
     16          1           0        1.194013    0.642328   -1.976551
     17          1           0        3.664145    0.579737   -2.076784
     18          1           0        4.973268    0.001441    0.000275
     19          1           0        3.663940   -0.578737    2.077065
     20          1           0        1.194064   -0.643348    1.975783
     21          1           0       -0.511078   -0.597298   -2.087211
     22          8           0       -4.433513    0.001524    0.000016
 ---------------------------------------------------------------------
                    Distance matrix (angstroms):
                    1          2          3          4          5
     1  C    0.000000
     2  C    1.417884   0.000000
     3  C    2.441754   1.417953   0.000000
     4  C    2.804020   2.420681   1.364588   0.000000
     5  C    2.472300   2.870924   2.472345   1.458292   0.000000
     6  C    1.364636   2.420726   2.804115   2.457564   1.458263
     7  H    3.892471   3.413948   2.137993   1.089192   2.179672
     8  H    3.433105   2.178964   1.090434   2.119201   3.451467
     9  H    2.138021   3.413954   3.892545   3.440484   2.179711
    10  N    2.451038   1.404171   2.450889   3.699735   4.275094
    11  C    2.899994   2.412534   3.651676   4.790021   5.115647
    12  C    4.251925   3.683613   4.809943   6.041875   6.467330
    13  C    5.079198   4.208888   5.078578   6.413064   7.079812
    14  C    4.810230   3.683539   4.251232   5.606152   6.467337
    15  C    3.651451   2.412204   2.899362   4.243145   5.115541
    16  H    2.556140   2.573236   3.886899   4.806892   4.855331
    17  H    4.873244   4.532978   5.733297   6.900183   7.189150
    18  H    6.140411   5.296402   6.139752   7.483306   8.167325
    19  H    5.733367   4.532717   4.872231   6.201413   7.188981
    20  H    3.886322   2.572748   2.555344   3.809292   4.855252
    21  H    1.090425   2.178835   3.433041   3.893322   3.451432
    22  O    3.602482   4.110380   3.602491   2.368434   1.239456
                    6          7          8          9         10
     6  C    0.000000
     7  H    3.440460   0.000000
     8  H    3.893450   2.450245   0.000000
     9  H    1.089185   4.334391   4.982207   0.000000
    10  N    3.699913   4.586271   2.691775   4.586466   0.000000
    11  C    4.243612   5.736640   3.957785   4.928734   1.367329
    12  C    5.606715   6.931208   4.903878   6.260104   2.398038
    13  C    6.413629   7.181142   4.902669   7.181970   2.804718
    14  C    6.042209   6.259304   3.897852   6.931683   2.398149
    15  C    4.789957   4.928206   2.655395   5.736587   1.367185
    16  H    3.809766   5.811642   4.407312   4.334526   2.081233
    17  H    6.202267   7.824534   5.896533   6.727284   3.364658
    18  H    7.483921   8.224458   5.897435   8.225382   3.892231
    19  H    6.900322   6.726112   4.336187   7.824820   3.364695
    20  H    4.806595   4.334028   2.109648   5.811285   2.081096
    21  H    2.119242   4.982098   4.341612   2.450279   2.691982
    22  O    2.368430   2.620058   4.483329   2.620186   5.514550
                   11         12         13         14         15
    11  C    0.000000
    12  C    1.377524   0.000000
    13  C    2.405102   1.392892   0.000000
    14  C    2.734492   2.380994   1.392790   0.000000
    15  C    2.343582   2.734204   2.404918   1.377588   0.000000
    16  H    1.083290   2.161036   3.400685   3.815039   3.302928
    17  H    2.120873   1.088111   2.167541   3.383955   3.821366
    18  H    3.396312   2.166819   1.087514   2.166876   3.396279
    19  H    3.821642   3.384034   2.167565   1.088105   2.120936
    20  H    3.302930   3.814739   3.400436   2.160938   1.083279
    21  H    2.656383   3.899149   4.903802   4.904386   3.957527
    22  O    6.328445   7.688937   8.319267   7.689051   6.328488
                   16         17         18         19         20
    16  H    0.000000
    17  H    2.472957   0.000000
    18  H    4.312928   2.522381   0.000000
    19  H    4.901361   4.312369   2.522697   0.000000
    20  H    4.156189   4.901075   4.312861   2.472796   0.000000
    21  H    2.110984   4.337973   5.898656   5.896805   4.406535
    22  O    5.998874   8.379707   9.406781   8.379712   5.999094
                   21         22
    21  H    0.000000
    22  O    4.483370   0.000000
 Symmetry turned off by external request.
 Stoichiometry    C11H9NO
 Framework group  C1[X(C11H9NO)]
 Deg. of freedom    60
 Full point group                 C1      NOp   1
 Rotational constants (GHZ):      2.8711308      0.4202006      0.3732441
 Standard basis: Aug-CC-pVDZ (5D, 7F)
   380 basis functions,   658 primitive gaussians,   406 cartesian basis functions
    45 alpha electrons       45 beta electrons
       nuclear repulsion energy       703.7337105632 Hartrees.
 NAtoms=   22 NActive=   22 NUniq=   22 SFac= 1.00D+00 NAtFMM=   60 NAOKFM=F Big=F
 Integral buffers will be    131072 words long.
 Raffenetti 1 integral format.
 Two-electron integral symmetry is turned off.
 One-electron integrals computed using PRISM.
 NBasis=   380 RedAO= T EigKep=  2.29D-06  NBF=   380
 NBsUse=   380 1.00D-06 EigRej= -1.00D+00 NBFU=   380
 ExpMin= 2.97D-02 ExpMax= 1.17D+04 ExpMxC= 4.01D+02 IAcc=3 IRadAn=         5 AccDes= 0.00D+00
 Harris functional with IExCor=20419 and IRadAn=       5 diagonalized for initial guess.
 HarFok:  IExCor=20419 AccDes= 0.00D+00 IRadAn=         5 IDoV= 1 UseB2=F ITyADJ=14
 ICtDFT=  3500011 ScaDFX=  1.000000  1.000000  1.000000  1.000000
 FoFCou: FMM=F IPFlag=           0 FMFlag=      100000 FMFlg1=           0
         NFxFlg=           0 DoJE=T BraDBF=F KetDBF=T FulRan=T
         wScrn=  0.000000 ICntrl=     500 IOpCl=  0 I1Cent=   200000004 NGrid=           0
         NMat0=    1 NMatS0=      1 NMatT0=    0 NMatD0=    1 NMtDS0=    0 NMtDT0=    0
 Symmetry not used in FoFCou.
 Requested convergence on RMS density matrix=1.00D-08 within 128 cycles.
 Requested convergence on MAX density matrix=1.00D-06.
 Requested convergence on             energy=1.00D-06.
 No special actions if energy rises.
 SCF Done:  E(RCAM-B3LYP) =  -554.271784095     A.U. after   17 cycles
            NFock= 17  Conv=0.80D-08     -V/T= 2.0058
 DoSCS=F DFT=T ScalE2(SS,OS)=  1.000000  1.000000
 ExpMin= 2.97D-02 ExpMax= 1.17D+04 ExpMxC= 4.01D+02 IAcc=3 IRadAn=         5 AccDes= 0.00D+00
 HarFok:  IExCor=  205 AccDes= 0.00D+00 IRadAn=         5 IDoV=-2 UseB2=F ITyADJ=14
 ICtDFT= 12500011 ScaDFX=  1.000000  1.000000  1.000000  1.000000
 Range of M.O.s used for correlation:    14   380
 NBasis=   380 NAE=    45 NBE=    45 NFC=    13 NFV=     0
 NROrb=    367 NOA=    32 NOB=    32 NVA=   335 NVB=   335

 **** Warning!!: The largest alpha MO coefficient is  0.11422869D+03

 Would need an additional         14865800000 words for in-memory AO integral storage.
    24 initial guesses have been made.
 Convergence on wavefunction:    0.000001000000000
 Iteration     1 Dimension    24 NMult     0 NNew     24
 CISAX will form    24 AO SS matrices at one time.
 New state      5 was old state      8
 New state      6 was old state      5
 Iteration     2 Dimension    36 NMult    24 NNew     12
 Iteration     3 Dimension    48 NMult    36 NNew     12
 No map to state      6
 Iteration     4 Dimension    60 NMult    48 NNew     12
 Iteration     5 Dimension    72 NMult    60 NNew     12
 Iteration     6 Dimension    84 NMult    72 NNew     12
 Iteration     7 Dimension    96 NMult    84 NNew     12
 Iteration     8 Dimension   108 NMult    96 NNew     12
 Iteration     9 Dimension   120 NMult   108 NNew     12
 Iteration    10 Dimension   130 NMult   120 NNew     10
 Iteration    11 Dimension   134 NMult   130 NNew      4
 ***********************************************************************
 Excited states from <AA,BB:AA,BB> singles matrix:
 ***********************************************************************
 
 Ground to excited state transition densities written to RWF  633
 Ground to excited state transition electric dipole moments (Au):
       state          X           Y           Z        Dip. S.      Osc.
         1        -2.9626     -0.0001      0.0000      8.7767      0.5364
         2        -0.0003     -0.0898      0.2048      0.0500      0.0036
         3        -0.3162      0.0000     -0.0001      0.1000      0.0078
         4         0.0003      0.0911     -0.1122      0.0209      0.0021
         5        -0.0001     -0.0896     -0.3778      0.1507      0.0157
         6         0.0001      0.1325      0.4196      0.1936      0.0203
 Ground to excited state transition velocity dipole moments (Au):
       state          X           Y           Z        Dip. S.      Osc.
         1         0.2682      0.0000      0.0000      0.0719      0.5230
         2         0.0000      0.0105     -0.0216      0.0006      0.0035
         3         0.0365      0.0000      0.0000      0.0013      0.0076
         4         0.0000     -0.0141      0.0160      0.0005      0.0020
         5         0.0000      0.0142      0.0585      0.0036      0.0154
         6         0.0000     -0.0208     -0.0656      0.0047      0.0201
 Ground to excited state transition magnetic dipole moments (Au):
       state          X           Y           Z
         1        -0.0967     -0.0004      0.0004
         2        -0.0004      1.0111      0.2664
         3         0.4917     -0.0002      0.0000
         4         0.0000     -0.0260      0.2409
         5        -0.0005     -0.9291      0.1332
         6         0.0003      0.0099      0.0022
 Ground to excited state transition velocity quadrupole moments (Au):
       state          XX          YY          ZZ          XY          XZ          YZ
         1        -0.0001      0.0122      0.0342      0.0002      0.0000     -0.0625
         2         0.0001      0.0000      0.0001      0.0176     -0.1852      0.0000
         3        -0.0272     -0.0004      0.0120      0.0000     -0.0001     -0.0199
         4        -0.0004      0.0002      0.0002      0.1005     -0.0794      0.0000
         5         0.0001      0.0000     -0.0001     -0.1454     -0.4036      0.0000
         6         0.0000      0.0001      0.0000      0.0758      0.2860      0.0001
 <0|del|b> * <b|rxdel|0> + <0|del|b> * <b|delr+rdel|0>
 Rotatory Strengths (R) in cgs (10**-40 erg-esu-cm/Gauss)
       state          XX          YY          ZZ    R(velocity)    E-M Angle
         1         0.0000   -164.7012    -35.4292    -66.7101      179.66
         2        21.0347    -17.5190     28.3264     10.6140       78.79
         3         0.0000     52.2183     56.6148     36.2777       90.00
         4        11.2431      5.3622      3.5443      6.7165       35.18
         5       -18.5297     36.7898    -42.9063     -8.2154       95.54
         6         1.4371     10.8450    -13.8528     -0.5236      120.09
 1/2[<0|r|b>*<b|rxdel|0> + (<0|rxdel|b>*<b|r|0>)*]
 Rotatory Strengths (R) in cgs (10**-40 erg-esu-cm/Gauss)
       state          XX          YY          ZZ     R(length)
         1      -202.6871      0.0000      0.0000    -67.5624
         2        -0.0001     64.1765    -38.5899      8.5288
         3       109.9499      0.0000      0.0000     36.6500
         4         0.0000      1.6767     19.1049      6.9272
         5         0.0000    -58.8847     35.5716     -7.7710
         6         0.0000     -0.9260     -0.6494     -0.5251
  1/2[<0|del|b>*<b|r|0> + (<0|r|b>*<b|del|0>)*] (Au)
       state          X           Y           Z        Dip. S.   Osc.(frdel)
         1        -0.7945      0.0000      0.0000      0.7945      0.5297
         2         0.0000     -0.0009     -0.0044      0.0054      0.0036
         3        -0.0116      0.0000      0.0000      0.0116      0.0077
         4         0.0000     -0.0013     -0.0018      0.0031      0.0021
         5         0.0000     -0.0013     -0.0221      0.0234      0.0156
         6         0.0000     -0.0028     -0.0275      0.0303      0.0202

 Excitation energies and oscillator strengths:
 
 Excited state symmetry could not be determined.
 Excited State   1:      Singlet-?Sym    2.4948 eV  496.97 nm  f=0.5364  <S**2>=0.000
      45 -> 46         0.70316
      45 <- 46        -0.10075
 This state for optimization and/or second-order correction.
 Total Energy, E(TD-HF/TD-KS) =  -554.180101924    
 Copying the excited state density for this state as the 1-particle RhoCI density.
 
 Excited state symmetry could not be determined.
 Excited State   2:      Singlet-?Sym    2.9469 eV  420.72 nm  f=0.0036  <S**2>=0.000
      45 -> 47         0.69548
 
 Excited state symmetry could not be determined.
 Excited State   3:      Singlet-?Sym    3.1771 eV  390.24 nm  f=0.0078  <S**2>=0.000
      44 -> 46         0.66847
      44 -> 59        -0.17656
 
 Excited state symmetry could not be determined.
 Excited State   4:      Singlet-?Sym    4.0344 eV  307.32 nm  f=0.0021  <S**2>=0.000
      45 -> 48         0.59970
      45 -> 50        -0.31167
      45 -> 52        -0.14619
 
 Excited state symmetry could not be determined.
 Excited State   5:      Singlet-?Sym    4.2583 eV  291.16 nm  f=0.0157  <S**2>=0.000
      43 -> 46         0.48977
      45 -> 48        -0.11774
      45 -> 52        -0.31927
      45 -> 54        -0.28458
      45 -> 56         0.20514
 
 Excited state symmetry could not be determined.
 Excited State   6:      Singlet-?Sym    4.2851 eV  289.34 nm  f=0.0203  <S**2>=0.000
      43 -> 46         0.50452
      45 -> 52         0.32344
      45 -> 54         0.28316
      45 -> 56        -0.19715
 SavETr:  write IOETrn=   770 NScale= 10 NData=  16 NLR=1 NState=    6 LETran=     118.
          Differentiating once with respect to electric field.
                with respect to dipole field.
          Electric field/nuclear overlap derivatives assumed to be zero.
          There are     1 degrees of freedom in the 1st order CPHF.  IDoFFX=0 NUNeed=     1.
 LinEq1:  Iter=  0 NonCon=     1 RMS=1.37D-02 Max=1.54D+00 NDo=     1
 AX will form     1 AO Fock derivatives at one time.
 LinEq1:  Iter=  1 NonCon=     1 RMS=4.93D-03 Max=2.09D-01 NDo=     1
 LinEq1:  Iter=  2 NonCon=     1 RMS=2.67D-03 Max=1.10D-01 NDo=     1
 LinEq1:  Iter=  3 NonCon=     1 RMS=1.90D-03 Max=9.00D-02 NDo=     1
 LinEq1:  Iter=  4 NonCon=     1 RMS=6.48D-04 Max=2.02D-02 NDo=     1
 LinEq1:  Iter=  5 NonCon=     1 RMS=4.54D-04 Max=2.79D-02 NDo=     1
 LinEq1:  Iter=  6 NonCon=     1 RMS=2.07D-04 Max=6.18D-03 NDo=     1
 LinEq1:  Iter=  7 NonCon=     1 RMS=1.04D-04 Max=2.32D-03 NDo=     1
 LinEq1:  Iter=  8 NonCon=     1 RMS=5.27D-05 Max=2.62D-03 NDo=     1
 LinEq1:  Iter=  9 NonCon=     1 RMS=3.84D-05 Max=1.64D-03 NDo=     1
 LinEq1:  Iter= 10 NonCon=     1 RMS=1.13D-05 Max=4.23D-04 NDo=     1
 LinEq1:  Iter= 11 NonCon=     1 RMS=5.27D-06 Max=1.93D-04 NDo=     1
 LinEq1:  Iter= 12 NonCon=     1 RMS=1.89D-06 Max=6.88D-05 NDo=     1
 LinEq1:  Iter= 13 NonCon=     1 RMS=7.73D-07 Max=2.93D-05 NDo=     1
 LinEq1:  Iter= 14 NonCon=     1 RMS=4.03D-07 Max=1.45D-05 NDo=     1
 LinEq1:  Iter= 15 NonCon=     1 RMS=1.47D-07 Max=4.48D-06 NDo=     1
 LinEq1:  Iter= 16 NonCon=     1 RMS=7.51D-08 Max=2.50D-06 NDo=     1
 LinEq1:  Iter= 17 NonCon=     1 RMS=1.82D-08 Max=3.80D-07 NDo=     1
 LinEq1:  Iter= 18 NonCon=     1 RMS=4.99D-09 Max=1.08D-07 NDo=     1
 LinEq1:  Iter= 19 NonCon=     1 RMS=1.89D-09 Max=1.03D-07 NDo=     1
 LinEq1:  Iter= 20 NonCon=     1 RMS=1.15D-09 Max=3.87D-08 NDo=     1
 LinEq1:  Iter= 21 NonCon=     1 RMS=2.40D-10 Max=4.90D-09 NDo=     1
 LinEq1:  Iter= 22 NonCon=     1 RMS=8.75D-11 Max=2.57D-09 NDo=     1
 LinEq1:  Iter= 23 NonCon=     0 RMS=3.73D-11 Max=5.75D-10 NDo=     1
 Linear equations converged to 1.000D-10 1.000D-09 after    23 iterations.
 End of Minotr F.D. properties file   721 does not exist.
 End of Minotr F.D. properties file   722 does not exist.
 End of Minotr F.D. properties file   788 does not exist.

 **********************************************************************

            Population analysis using the SCF density.

 **********************************************************************

 Alpha  occ. eigenvalues --  -19.14095 -14.55071 -10.35324 -10.35321 -10.32510
 Alpha  occ. eigenvalues --  -10.32507 -10.32180 -10.29840 -10.29724 -10.27119
 Alpha  occ. eigenvalues --  -10.27117 -10.24033 -10.24030  -1.14294  -1.05603
 Alpha  occ. eigenvalues --   -0.96996  -0.91746  -0.91298  -0.83263  -0.81914
 Alpha  occ. eigenvalues --   -0.77953  -0.75739  -0.68898  -0.67552  -0.64623
 Alpha  occ. eigenvalues --   -0.61918  -0.60678  -0.58658  -0.56947  -0.55693
 Alpha  occ. eigenvalues --   -0.52005  -0.51601  -0.49881  -0.49478  -0.47793
 Alpha  occ. eigenvalues --   -0.47308  -0.45417  -0.42811  -0.42452  -0.40470
 Alpha  occ. eigenvalues --   -0.37971  -0.36418  -0.31587  -0.26919  -0.22252
 Alpha virt. eigenvalues --   -0.06628  -0.02638  -0.00960   0.00511   0.01251
 Alpha virt. eigenvalues --    0.02717   0.03047   0.03184   0.03734   0.04874
 Alpha virt. eigenvalues --    0.05126   0.05389   0.05894   0.06378   0.07432
 Alpha virt. eigenvalues --    0.07817   0.08838   0.08994   0.09200   0.09394
 Alpha virt. eigenvalues --    0.10000   0.10170   0.11247   0.11296   0.11483
 Alpha virt. eigenvalues --    0.11743   0.11874   0.11974   0.12481   0.13053
 Alpha virt. eigenvalues --    0.13742   0.14401   0.14529   0.15269   0.15548
 Alpha virt. eigenvalues --    0.15884   0.16096   0.16456   0.17366   0.17628
 Alpha virt. eigenvalues --    0.17752   0.18219   0.19452   0.19867   0.20485
 Alpha virt. eigenvalues --    0.20780   0.21459   0.22027   0.22575   0.22954
 Alpha virt. eigenvalues --    0.23449   0.23939   0.23975   0.24149   0.25196
 Alpha virt. eigenvalues --    0.25279   0.25800   0.26224   0.26361   0.26617
 Alpha virt. eigenvalues --    0.27400   0.27947   0.28179   0.28380   0.28581
 Alpha virt. eigenvalues --    0.29009   0.29368   0.30148   0.30591   0.30739
 Alpha virt. eigenvalues --    0.31849   0.32384   0.32653   0.33088   0.33492
 Alpha virt. eigenvalues --    0.33580   0.34775   0.34793   0.34975   0.35715
 Alpha virt. eigenvalues --    0.36123   0.37311   0.37965   0.38282   0.38475
 Alpha virt. eigenvalues --    0.38893   0.39731   0.40409   0.42478   0.42579
 Alpha virt. eigenvalues --    0.43937   0.43989   0.44693   0.44837   0.45084
 Alpha virt. eigenvalues --    0.45966   0.46959   0.47352   0.47440   0.47962
 Alpha virt. eigenvalues --    0.48839   0.49831   0.50231   0.51340   0.51887
 Alpha virt. eigenvalues --    0.51972   0.52933   0.53543   0.54105   0.54510
 Alpha virt. eigenvalues --    0.55831   0.56842   0.56852   0.57114   0.57179
 Alpha virt. eigenvalues --    0.58245   0.58526   0.59197   0.59324   0.60027
 Alpha virt. eigenvalues --    0.62163   0.62437   0.62712   0.63221   0.63732
 Alpha virt. eigenvalues --    0.64282   0.64959   0.65104   0.65808   0.66005
 Alpha virt. eigenvalues --    0.66295   0.67750   0.67982   0.68446   0.68824
 Alpha virt. eigenvalues --    0.69113   0.69980   0.71018   0.71114   0.71245
 Alpha virt. eigenvalues --    0.71831   0.72403   0.73389   0.74320   0.74576
 Alpha virt. eigenvalues --    0.75136   0.76434   0.76495   0.77506   0.77528
 Alpha virt. eigenvalues --    0.78004   0.78349   0.79603   0.80484   0.80534
 Alpha virt. eigenvalues --    0.81383   0.81695   0.82512   0.82646   0.83839
 Alpha virt. eigenvalues --    0.84053   0.85591   0.86927   0.87288   0.87562
 Alpha virt. eigenvalues --    0.89709   0.90000   0.90318   0.91360   0.91964
 Alpha virt. eigenvalues --    0.92472   0.92983   0.94564   0.95580   0.97576
 Alpha virt. eigenvalues --    0.99109   1.00545   1.01424   1.03442   1.03776
 Alpha virt. eigenvalues --    1.04863   1.06993   1.08144   1.09596   1.10965
 Alpha virt. eigenvalues --    1.12638   1.13492   1.16017   1.16828   1.18426
 Alpha virt. eigenvalues --    1.21254   1.23249   1.23513   1.24364   1.28232
 Alpha virt. eigenvalues --    1.28734   1.33504   1.33517   1.33839   1.34652
 Alpha virt. eigenvalues --    1.35721   1.35839   1.37443   1.38730   1.40312
 Alpha virt. eigenvalues --    1.41469   1.41731   1.42207   1.43055   1.43616
 Alpha virt. eigenvalues --    1.44333   1.45187   1.45631   1.45804   1.47054
 Alpha virt. eigenvalues --    1.47939   1.48406   1.49693   1.50185   1.51619
 Alpha virt. eigenvalues --    1.51741   1.52077   1.55804   1.56380   1.56891
 Alpha virt. eigenvalues --    1.57586   1.59334   1.59920   1.59924   1.61014
 Alpha virt. eigenvalues --    1.61744   1.62957   1.64256   1.64338   1.65283
 Alpha virt. eigenvalues --    1.66445   1.67491   1.68640   1.69415   1.70312
 Alpha virt. eigenvalues --    1.72130   1.72157   1.72968   1.73470   1.75240
 Alpha virt. eigenvalues --    1.75351   1.76712   1.77137   1.78714   1.80245
 Alpha virt. eigenvalues --    1.81778   1.84212   1.86276   1.86313   1.86889
 Alpha virt. eigenvalues --    1.88609   1.89089   1.90205   1.90623   1.92969
 Alpha virt. eigenvalues --    1.93334   1.94323   1.94694   1.95314   1.96438
 Alpha virt. eigenvalues --    2.00001   2.01268   2.01506   2.03933   2.04252
 Alpha virt. eigenvalues --    2.06015   2.07364   2.07728   2.09167   2.09779
 Alpha virt. eigenvalues --    2.11186   2.11976   2.14176   2.14232   2.17036
 Alpha virt. eigenvalues --    2.19500   2.19844   2.20069   2.22787   2.25338
 Alpha virt. eigenvalues --    2.25464   2.26921   2.29621   2.35043   2.35702
 Alpha virt. eigenvalues --    2.36711   2.38995   2.40065   2.41381   2.44226
 Alpha virt. eigenvalues --    2.46801   2.47537   2.49504   2.53881   2.56524
 Alpha virt. eigenvalues --    2.60599   2.62119   2.63227   2.65579   2.67116
 Alpha virt. eigenvalues --    2.68987   2.69241   2.73963   2.76336   2.80483
 Alpha virt. eigenvalues --    2.81289   2.82424   2.83943   2.88971   2.91727
 Alpha virt. eigenvalues --    2.93111   3.01225   3.03918   3.04877   3.11977
 Alpha virt. eigenvalues --    3.18385   3.24115   3.26290   3.40486   3.41897
 Alpha virt. eigenvalues --    3.47706   3.54258   3.54906   3.56368   3.60416
 Alpha virt. eigenvalues --    3.66187   3.82006   3.88504   4.22260   4.49850
          Condensed to atoms (all electrons):
               1          2          3          4          5          6
     1  C   16.513676  -6.773670   2.699683  -3.572506   2.163389  -5.130303
     2  C   -6.773670  19.454178  -6.769919   2.352027  -2.816613   2.352136
     3  C    2.699683  -6.769919  16.510371  -5.132390   2.162456  -3.571986
     4  C   -3.572506   2.352027  -5.132390  13.115976  -3.616563   3.214546
     5  C    2.163389  -2.816613   2.162456  -3.616563  11.961314  -3.616737
     6  C   -5.130303   2.352136  -3.571986   3.214546  -3.616737  13.110956
     7  H    0.212326  -0.285938   1.294356  -1.804015   0.291290  -0.267092
     8  H   -0.306041   1.520738  -2.876821   0.697043  -0.301503   0.182812
     9  H    1.294300  -0.286343   0.212317  -0.266881   0.291221  -1.803389
    10  N    0.859214  -1.865816   0.858145  -0.308600   0.196160  -0.307917
    11  C    0.252109  -3.294303   0.625047  -0.045679   0.026605  -0.416599
    12  C   -0.164771   2.141697  -0.348932   0.023715   0.009337   0.142803
    13  C    0.160751  -1.752884   0.161182  -0.036914  -0.001513  -0.037085
    14  C   -0.347989   2.136958  -0.164256   0.142716   0.009261   0.023648
    15  C    0.624997  -3.293769   0.253607  -0.417835   0.026689  -0.045759
    16  H   -0.167412   0.743539  -0.127121   0.003968   0.006143   0.096876
    17  H   -0.014624  -0.173134   0.030917   0.002443  -0.001429  -0.003968
    18  H   -0.000551   0.040848  -0.000623  -0.000819   0.000158  -0.000811
    19  H    0.030917  -0.173010  -0.014682  -0.003960  -0.001433   0.002447
    20  H   -0.127427   0.744626  -0.167072   0.097010   0.006140   0.003875
    21  H   -2.877018   1.521272  -0.305182   0.182541  -0.301668   0.696885
    22  O   -0.218523   0.178924  -0.218340   0.333244  -0.337769   0.333368
               7          8          9         10         11         12
     1  C    0.212326  -0.306041   1.294300   0.859214   0.252109  -0.164771
     2  C   -0.285938   1.520738  -0.286343  -1.865816  -3.294303   2.141697
     3  C    1.294356  -2.876821   0.212317   0.858145   0.625047  -0.348932
     4  C   -1.804015   0.697043  -0.266881  -0.308600  -0.045679   0.023715
     5  C    0.291290  -0.301503   0.291221   0.196160   0.026605   0.009337
     6  C   -0.267092   0.182812  -1.803389  -0.307917  -0.416599   0.142803
     7  H    2.745410  -0.271561  -0.014768  -0.007001  -0.010262   0.005801
     8  H   -0.271561   3.699171   0.009615  -0.353034   0.000495   0.007672
     9  H   -0.014768   0.009615   2.745371  -0.007081  -0.003213   0.006729
    10  N   -0.007001  -0.353034  -0.007081   7.985419   0.595937  -0.078181
    11  C   -0.010262   0.000495  -0.003213   0.595937  12.872392  -4.826554
    12  C    0.005801   0.007672   0.006729  -0.078181  -4.826554  12.018800
    13  C   -0.003899  -0.016281  -0.003901  -0.425091   2.022760  -3.570828
    14  C    0.006685   0.035923   0.005795  -0.077007  -2.228279   2.524879
    15  C   -0.003151   0.021033  -0.010318   0.596722   0.762410  -2.227605
    16  H    0.001222  -0.006292   0.006737  -0.148981  -1.681069   0.464078
    17  H   -0.000012   0.001323  -0.000342  -0.079956   0.806550  -1.719853
    18  H   -0.000023   0.000396  -0.000023   0.022360  -0.199950   0.619331
    19  H   -0.000343   0.000217  -0.000012  -0.079896   0.227842  -0.346571
    20  H    0.006752   0.028422   0.001224  -0.149197  -0.327519   0.165651
    21  H    0.009606  -0.026041  -0.271745  -0.352629   0.021562   0.035888
    22  O   -0.083037   0.004975  -0.083026   0.001072   0.001714  -0.000859
              13         14         15         16         17         18
     1  C    0.160751  -0.347989   0.624997  -0.167412  -0.014624  -0.000551
     2  C   -1.752884   2.136958  -3.293769   0.743539  -0.173134   0.040848
     3  C    0.161182  -0.164256   0.253607  -0.127121   0.030917  -0.000623
     4  C   -0.036914   0.142716  -0.417835   0.003968   0.002443  -0.000819
     5  C   -0.001513   0.009261   0.026689   0.006143  -0.001429   0.000158
     6  C   -0.037085   0.023648  -0.045759   0.096876  -0.003968  -0.000811
     7  H   -0.003899   0.006685  -0.003151   0.001222  -0.000012  -0.000023
     8  H   -0.016281   0.035923   0.021033  -0.006292   0.001323   0.000396
     9  H   -0.003901   0.005795  -0.010318   0.006737  -0.000342  -0.000023
    10  N   -0.425091  -0.077007   0.596722  -0.148981  -0.079956   0.022360
    11  C    2.022760  -2.228279   0.762410  -1.681069   0.806550  -0.199950
    12  C   -3.570828   2.524879  -2.227605   0.464078  -1.719853   0.619331
    13  C   10.889691  -3.570356   2.020522  -0.161003   0.739481  -1.339159
    14  C   -3.570356  12.012247  -4.816684   0.165130  -0.346793   0.619166
    15  C    2.020522  -4.816684  12.863673  -0.327285   0.227766  -0.199875
    16  H   -0.161003   0.165130  -0.327285   3.236963  -0.210199  -0.019199
    17  H    0.739481  -0.346793   0.227766  -0.210199   2.625838  -0.127229
    18  H   -1.339159   0.619166  -0.199875  -0.019199  -0.127229   2.401335
    19  H    0.740014  -1.718793   0.804843   0.006985  -0.024446  -0.127066
    20  H   -0.161902   0.462367  -1.680189   0.003805   0.006992  -0.019193
    21  H   -0.016303   0.007637   0.000739   0.028386   0.000218   0.000395
    22  O    0.000462  -0.000852   0.001737  -0.000129  -0.000022   0.000008
              19         20         21         22
     1  C    0.030917  -0.127427  -2.877018  -0.218523
     2  C   -0.173010   0.744626   1.521272   0.178924
     3  C   -0.014682  -0.167072  -0.305182  -0.218340
     4  C   -0.003960   0.097010   0.182541   0.333244
     5  C   -0.001433   0.006140  -0.301668  -0.337769
     6  C    0.002447   0.003875   0.696885   0.333368
     7  H   -0.000343   0.006752   0.009606  -0.083037
     8  H    0.000217   0.028422  -0.026041   0.004975
     9  H   -0.000012   0.001224  -0.271745  -0.083026
    10  N   -0.079896  -0.149197  -0.352629   0.001072
    11  C    0.227842  -0.327519   0.021562   0.001714
    12  C   -0.346571   0.165651   0.035888  -0.000859
    13  C    0.740014  -0.161902  -0.016303   0.000462
    14  C   -1.718793   0.462367   0.007637  -0.000852
    15  C    0.804843  -1.680189   0.000739   0.001737
    16  H    0.006985   0.003805   0.028386  -0.000129
    17  H   -0.024446   0.006992   0.000218  -0.000022
    18  H   -0.127066  -0.019193   0.000395   0.000008
    19  H    2.625608  -0.210515   0.001318  -0.000022
    20  H   -0.210515   3.237441  -0.006256  -0.000133
    21  H    0.001318  -0.006256   3.697089   0.004983
    22  O   -0.000022  -0.000133   0.004983   8.719376
 Mulliken charges:
               1
     1  C    0.889473
     2  C    0.298458
     3  C    0.889242
     4  C    1.040931
     5  C   -0.154936
     6  C    1.041294
     7  H   -0.822346
     8  H   -1.052261
     9  H   -0.822270
    10  N    0.125359
    11  C    0.818005
    12  C    1.117773
    13  C    0.362258
    14  C    1.118598
    15  C    0.817733
    16  H   -0.915142
    17  H   -0.739521
    18  H   -0.669477
    19  H   -0.739442
    20  H   -0.914901
    21  H   -1.051676
    22  O   -0.637152
 Sum of Mulliken charges =   0.00000
 Mulliken charges with hydrogens summed into heavy atoms:
               1
     1  C   -0.162204
     2  C    0.298458
     3  C   -0.163019
     4  C    0.218585
     5  C   -0.154936
     6  C    0.219025
    10  N    0.125359
    11  C   -0.097137
    12  C    0.378252
    13  C   -0.307219
    14  C    0.379156
    15  C   -0.097168
    22  O   -0.637152
 Electronic spatial extent (au):  <R**2>=           2815.0211
 Charge=              0.0000 electrons
 Dipole moment (field-independent basis, Debye):
    X=             12.4657    Y=             -0.0029    Z=             -0.0001  Tot=             12.4657
 Quadrupole moment (field-independent basis, Debye-Ang):
   XX=            -98.3784   YY=            -79.4527   ZZ=            -65.6167
   XY=              0.0198   XZ=              0.0012   YZ=             -1.3150
 Traceless Quadrupole moment (field-independent basis, Debye-Ang):
   XX=            -17.2291   YY=              1.6966   ZZ=             15.5325
   XY=              0.0198   XZ=              0.0012   YZ=             -1.3150
 Octapole moment (field-independent basis, Debye-Ang**2):
  XXX=            254.9904  YYY=              0.0066  ZZZ=              0.0028  XYY=             -3.0032
  XXY=             -0.0491  XXZ=              0.0036  XZZ=             11.8470  YZZ=             -0.0034
  YYZ=             -0.0050  XYZ=            -10.2252
 Hexadecapole moment (field-independent basis, Debye-Ang**3):
 XXXX=          -3772.6603 YYYY=           -133.7320 ZZZZ=           -515.2868 XXXY=              0.4804
 XXXZ=              0.0279 YYYX=             -0.0326 YYYZ=             -3.4161 ZZZX=              0.0022
 ZZZY=             -5.0123 XXYY=           -578.8704 XXZZ=           -561.0980 YYZZ=           -117.5875
 XXYZ=            -15.9708 YYXZ=              0.0028 ZZXY=              0.0080
 N-N= 7.037337105632D+02 E-N=-2.695422356425D+03  KE= 5.510838814925D+02

 **********************************************************************

            Population analysis using the CI one-particle density.

 **********************************************************************

          Condensed to atoms (all electrons):
               1          2          3          4          5          6
     1  C   16.953293  -6.775355   2.418819  -3.727808   2.095681  -5.048922
     2  C   -6.775355  19.699759  -6.770908   2.209069  -2.972781   2.209362
     3  C    2.418819  -6.770908  16.948839  -5.051064   2.094635  -3.726897
     4  C   -3.727808   2.209069  -5.051064  13.254090  -3.577999   3.137461
     5  C    2.095681  -2.972781   2.094635  -3.577999  12.171795  -3.578441
     6  C   -5.048922   2.209362  -3.726897   3.137461  -3.578441  13.248833
     7  H    0.211521  -0.286941   1.287757  -1.804694   0.295490  -0.264069
     8  H   -0.303878   1.524703  -2.873273   0.685661  -0.305217   0.184300
     9  H    1.287714  -0.287372   0.211531  -0.263867   0.295450  -1.804099
    10  N    0.824687  -1.809685   0.823751  -0.339013   0.179675  -0.338368
    11  C    0.447996  -3.393312   0.487289  -0.084650   0.037810  -0.329584
    12  C   -0.245743   2.168023  -0.270423   0.039699   0.006904   0.118646
    13  C    0.148194  -1.720005   0.148220  -0.042774  -0.003580  -0.042822
    14  C   -0.269925   2.163098  -0.244609   0.118712   0.006860   0.039466
    15  C    0.487353  -3.392571   0.448889  -0.330749   0.037865  -0.084537
    16  H   -0.150925   0.729592  -0.142266  -0.000153   0.009249   0.112773
    17  H   -0.020181  -0.170123   0.035192   0.003260  -0.001685  -0.006116
    18  H   -0.000600   0.040810  -0.000688  -0.000835   0.000159  -0.000822
    19  H    0.035196  -0.169991  -0.020245  -0.006111  -0.001687   0.003259
    20  H   -0.142599   0.730716  -0.150659   0.112939   0.009231  -0.000218
    21  H   -2.873581   1.525306  -0.303063   0.184041  -0.305382   0.685562
    22  O   -0.214554   0.179294  -0.214360   0.338875  -0.345113   0.338986
               7          8          9         10         11         12
     1  C    0.211521  -0.303878   1.287714   0.824687   0.447996  -0.245743
     2  C   -0.286941   1.524703  -0.287372  -1.809685  -3.393312   2.168023
     3  C    1.287757  -2.873273   0.211531   0.823751   0.487289  -0.270423
     4  C   -1.804694   0.685661  -0.263867  -0.339013  -0.084650   0.039699
     5  C    0.295490  -0.305217   0.295450   0.179675   0.037810   0.006904
     6  C   -0.264069   0.184300  -1.804099  -0.338368  -0.329584   0.118646
     7  H    2.745084  -0.270696  -0.014803  -0.007390  -0.010135   0.006184
     8  H   -0.270696   3.695119   0.009523  -0.351313  -0.003395   0.006237
     9  H   -0.014803   0.009523   2.745047  -0.007469  -0.003369   0.006088
    10  N   -0.007390  -0.351313  -0.007469   8.471775   0.466365  -0.094797
    11  C   -0.010135  -0.003395  -0.003369   0.466365  13.140720  -4.849945
    12  C    0.006184   0.006237   0.006088  -0.094797  -4.849945  12.081865
    13  C   -0.003992  -0.016384  -0.003993  -0.375024   1.983922  -3.636507
    14  C    0.006042   0.042569   0.006175  -0.093669  -2.152588   2.513506
    15  C   -0.003303   0.026034  -0.010188   0.467093   0.677388  -2.151425
    16  H    0.001203  -0.006908   0.006796  -0.157625  -1.649812   0.450443
    17  H   -0.000002   0.001425  -0.000360  -0.079268   0.789973  -1.710923
    18  H   -0.000023   0.000381  -0.000023   0.022607  -0.200271   0.618755
    19  H   -0.000361  -0.000003  -0.000002  -0.079201   0.234633  -0.348011
    20  H    0.006812   0.030393   0.001205  -0.157845  -0.338284   0.173236
    21  H    0.009514  -0.025346  -0.270881  -0.350904   0.026576   0.042489
    22  O   -0.082797   0.005090  -0.082783   0.000742   0.001783  -0.000873
              13         14         15         16         17         18
     1  C    0.148194  -0.269925   0.487353  -0.150925  -0.020181  -0.000600
     2  C   -1.720005   2.163098  -3.392571   0.729592  -0.170123   0.040810
     3  C    0.148220  -0.244609   0.448889  -0.142266   0.035192  -0.000688
     4  C   -0.042774   0.118712  -0.330749  -0.000153   0.003260  -0.000835
     5  C   -0.003580   0.006860   0.037865   0.009249  -0.001685   0.000159
     6  C   -0.042822   0.039466  -0.084537   0.112773  -0.006116  -0.000822
     7  H   -0.003992   0.006042  -0.003303   0.001203  -0.000002  -0.000023
     8  H   -0.016384   0.042569   0.026034  -0.006908   0.001425   0.000381
     9  H   -0.003993   0.006175  -0.010188   0.006796  -0.000360  -0.000023
    10  N   -0.375024  -0.093669   0.467093  -0.157625  -0.079268   0.022607
    11  C    1.983922  -2.152588   0.677388  -1.649812   0.789973  -0.200271
    12  C   -3.636507   2.513506  -2.151425   0.450443  -1.710923   0.618755
    13  C   11.169224  -3.635781   1.980995  -0.165336   0.741722  -1.333146
    14  C   -3.635781  12.074429  -4.838919   0.172709  -0.348227   0.618600
    15  C    1.980995  -4.838919  13.131161  -0.338057   0.234546  -0.200214
    16  H   -0.165336   0.172709  -0.338057   3.240565  -0.210192  -0.019173
    17  H    0.741722  -0.348227   0.234546  -0.210192   2.625603  -0.127242
    18  H   -1.333146   0.618600  -0.200214  -0.019173  -0.127242   2.403004
    19  H    0.742264  -1.709851   0.788234   0.007150  -0.024583  -0.127079
    20  H   -0.166238   0.448774  -1.648961   0.003588   0.007157  -0.019169
    21  H   -0.016394   0.006197  -0.003149   0.030354  -0.000003   0.000380
    22  O    0.000432  -0.000866   0.001809  -0.000297  -0.000018   0.000008
              19         20         21         22
     1  C    0.035196  -0.142599  -2.873581  -0.214554
     2  C   -0.169991   0.730716   1.525306   0.179294
     3  C   -0.020245  -0.150659  -0.303063  -0.214360
     4  C   -0.006111   0.112939   0.184041   0.338875
     5  C   -0.001687   0.009231  -0.305382  -0.345113
     6  C    0.003259  -0.000218   0.685562   0.338986
     7  H   -0.000361   0.006812   0.009514  -0.082797
     8  H   -0.000003   0.030393  -0.025346   0.005090
     9  H   -0.000002   0.001205  -0.270881  -0.082783
    10  N   -0.079201  -0.157845  -0.350904   0.000742
    11  C    0.234633  -0.338284   0.026576   0.001783
    12  C   -0.348011   0.173236   0.042489  -0.000873
    13  C    0.742264  -0.166238  -0.016394   0.000432
    14  C   -1.709851   0.448774   0.006197  -0.000866
    15  C    0.788234  -1.648961  -0.003149   0.001809
    16  H    0.007150   0.003588   0.030354  -0.000297
    17  H   -0.024583   0.007157  -0.000003  -0.000018
    18  H   -0.127079  -0.019169   0.000380   0.000008
    19  H    2.625374  -0.210509   0.001421  -0.000018
    20  H   -0.210509   3.241045  -0.006873  -0.000300
    21  H    0.001421  -0.006873   3.693086   0.005097
    22  O   -0.000018  -0.000300   0.005097   8.584350
 Mulliken charges:
               1
     1  C    0.863617
     2  C    0.569309
     3  C    0.863532
     4  C    1.145908
     5  C   -0.148921
     6  C    1.146251
     7  H   -0.820399
     8  H   -1.055019
     9  H   -0.820320
    10  N   -0.015124
    11  C    0.720892
    12  C    1.076574
    13  C    0.247001
    14  C    1.077299
    15  C    0.720707
    16  H   -0.923678
    17  H   -0.739955
    18  H   -0.675417
    19  H   -0.739879
    20  H   -0.923441
    21  H   -1.054447
    22  O   -0.514488
 Sum of Mulliken charges =   0.00000
 Mulliken charges with hydrogens summed into heavy atoms:
               1
     1  C   -0.190829
     2  C    0.569309
     3  C   -0.191487
     4  C    0.325508
     5  C   -0.148921
     6  C    0.325931
    10  N   -0.015124
    11  C   -0.202786
    12  C    0.336619
    13  C   -0.428416
    14  C    0.337420
    15  C   -0.202735
    22  O   -0.514488
 Electronic spatial extent (au):  <R**2>=           2816.9371
 Charge=              0.0000 electrons
 Dipole moment (field-independent basis, Debye):
    X=              0.6464    Y=             -0.0027    Z=             -0.0006  Tot=              0.6464
 Quadrupole moment (field-independent basis, Debye-Ang):
   XX=            -97.5034   YY=            -80.6165   ZZ=            -67.9049
   XY=              0.0164   XZ=              0.0011   YZ=             -0.9047
 Traceless Quadrupole moment (field-independent basis, Debye-Ang):
   XX=            -15.4951   YY=              1.3918   ZZ=             14.1033
   XY=              0.0164   XZ=              0.0011   YZ=             -0.9047
 Octapole moment (field-independent basis, Debye-Ang**2):
  XXX=            117.6077  YYY=              0.0108  ZZZ=              0.0031  XYY=            -11.7411
  XXY=             -0.0430  XXZ=              0.0005  XZZ=             -1.2336  YZZ=             -0.0009
  YYZ=             -0.0069  XYZ=            -10.0746
 Hexadecapole moment (field-independent basis, Debye-Ang**3):
 XXXX=          -3742.3647 YYYY=           -144.1614 ZZZZ=           -533.4877 XXXY=              0.3855
 XXXZ=              0.0177 YYYX=             -0.0294 YYYZ=             -0.1708 ZZZX=              0.0058
 ZZZY=             -5.1116 XXYY=           -588.2574 XXZZ=           -568.8098 YYZZ=           -123.1052
 XXYZ=            -14.9634 YYXZ=              0.0004 ZZXY=              0.0136
 N-N= 7.037337105632D+02 E-N=-2.694869225267D+03  KE= 5.511401164861D+02

 **********************************************************************

            Population analysis using the CI density.

 **********************************************************************

          Condensed to atoms (all electrons):
               1          2          3          4          5          6
     1  C   16.676468  -6.679866   2.452081  -3.716964   2.081778  -5.034304
     2  C   -6.679866  19.973375  -6.675700   2.159406  -2.937338   2.159688
     3  C    2.452081  -6.675700  16.672208  -5.036575   2.080748  -3.716058
     4  C   -3.716964   2.159406  -5.036575  13.327142  -3.503078   3.139687
     5  C    2.081778  -2.937338   2.080748  -3.503078  12.021976  -3.503525
     6  C   -5.034304   2.159688  -3.716058   3.139687  -3.503525  13.321831
     7  H    0.212563  -0.280992   1.277574  -1.775247   0.286547  -0.268283
     8  H   -0.318785   1.472083  -2.823683   0.696684  -0.298676   0.187036
     9  H    1.277508  -0.281421   0.212559  -0.268071   0.286513  -1.774638
    10  N    0.823112  -1.804514   0.822337  -0.351422   0.177207  -0.350737
    11  C    0.472698  -3.424869   0.474886  -0.088629   0.035763  -0.328254
    12  C   -0.248195   2.186790  -0.263885   0.044326   0.006427   0.112792
    13  C    0.146765  -1.737343   0.146837  -0.044042  -0.004157  -0.044095
    14  C   -0.263320   2.181739  -0.247065   0.112834   0.006386   0.044076
    15  C    0.474897  -3.424210   0.473568  -0.329403   0.035816  -0.088509
    16  H   -0.151675   0.732329  -0.135775  -0.000455   0.009433   0.118150
    17  H   -0.020688  -0.170158   0.035179   0.003416  -0.001708  -0.006372
    18  H   -0.000460   0.039708  -0.000549  -0.000848   0.000154  -0.000835
    19  H    0.035185  -0.170019  -0.020754  -0.006369  -0.001711   0.003415
    20  H   -0.136114   0.733492  -0.151438   0.118340   0.009419  -0.000522
    21  H   -2.823983   1.472744  -0.317945   0.186767  -0.298836   0.696550
    22  O   -0.216059   0.179411  -0.215848   0.320564  -0.332902   0.320669
               7          8          9         10         11         12
     1  C    0.212563  -0.318785   1.277508   0.823112   0.472698  -0.248195
     2  C   -0.280992   1.472083  -0.281421  -1.804514  -3.424869   2.186790
     3  C    1.277574  -2.823683   0.212559   0.822337   0.474886  -0.263885
     4  C   -1.775247   0.696684  -0.268071  -0.351422  -0.088629   0.044326
     5  C    0.286547  -0.298676   0.286513   0.177207   0.035763   0.006427
     6  C   -0.268283   0.187036  -1.774638  -0.350737  -0.328254   0.112792
     7  H    2.727381  -0.273169  -0.014973  -0.006761  -0.009939   0.006323
     8  H   -0.273169   3.677417   0.009624  -0.357777  -0.006625   0.005443
     9  H   -0.014973   0.009624   2.727341  -0.006838  -0.004732   0.005987
    10  N   -0.006761  -0.357777  -0.006838   8.217946   0.529465  -0.087368
    11  C   -0.009939  -0.006625  -0.004732   0.529465  13.256607  -5.005727
    12  C    0.006323   0.005443   0.005987  -0.087368  -5.005727  12.210303
    13  C   -0.004047  -0.016688  -0.004049  -0.396860   2.017339  -3.664938
    14  C    0.005939   0.044939   0.006314  -0.086191  -2.159430   2.513785
    15  C   -0.004669   0.038654  -0.009993   0.530295   0.630352  -2.158404
    16  H    0.001373  -0.007759   0.006665  -0.151936  -1.700321   0.458575
    17  H   -0.000008   0.001553  -0.000341  -0.081240   0.801830  -1.733585
    18  H   -0.000025   0.000386  -0.000025   0.021547  -0.197129   0.619288
    19  H   -0.000342  -0.000594  -0.000008  -0.081176   0.233070  -0.347029
    20  H    0.006681   0.035226   0.001375  -0.152153  -0.342437   0.176802
    21  H    0.009615  -0.025423  -0.273350  -0.357373   0.039169   0.044838
    22  O   -0.082942   0.005030  -0.082931   0.000710   0.002033  -0.000828
              13         14         15         16         17         18
     1  C    0.146765  -0.263320   0.474897  -0.151675  -0.020688  -0.000460
     2  C   -1.737343   2.181739  -3.424210   0.732329  -0.170158   0.039708
     3  C    0.146837  -0.247065   0.473568  -0.135775   0.035179  -0.000549
     4  C   -0.044042   0.112834  -0.329403  -0.000455   0.003416  -0.000848
     5  C   -0.004157   0.006386   0.035816   0.009433  -0.001708   0.000154
     6  C   -0.044095   0.044076  -0.088509   0.118150  -0.006372  -0.000835
     7  H   -0.004047   0.005939  -0.004669   0.001373  -0.000008  -0.000025
     8  H   -0.016688   0.044939   0.038654  -0.007759   0.001553   0.000386
     9  H   -0.004049   0.006314  -0.009993   0.006665  -0.000341  -0.000025
    10  N   -0.396860  -0.086191   0.530295  -0.151936  -0.081240   0.021547
    11  C    2.017339  -2.159430   0.630352  -1.700321   0.801830  -0.197129
    12  C   -3.664938   2.513785  -2.158404   0.458575  -1.733585   0.619288
    13  C   11.098368  -3.664275   2.014550  -0.169940   0.750482  -1.348084
    14  C   -3.664275  12.202863  -4.994678   0.176293  -0.347258   0.619134
    15  C    2.014550  -4.994678  13.246994  -0.342231   0.232987  -0.197080
    16  H   -0.169940   0.176293  -0.342231   3.276060  -0.209673  -0.019463
    17  H    0.750482  -0.347258   0.232987  -0.209673   2.637497  -0.127488
    18  H   -1.348084   0.619134  -0.197080  -0.019463  -0.127488   2.417222
    19  H    0.751022  -1.732486   0.800060   0.006797  -0.024405  -0.127323
    20  H   -0.170825   0.456825  -1.699435   0.005235   0.006803  -0.019457
    21  H   -0.016686   0.005396  -0.006378   0.035173  -0.000593   0.000386
    22  O    0.000428  -0.000822   0.002060  -0.000380  -0.000016   0.000008
              19         20         21         22
     1  C    0.035185  -0.136114  -2.823983  -0.216059
     2  C   -0.170019   0.733492   1.472744   0.179411
     3  C   -0.020754  -0.151438  -0.317945  -0.215848
     4  C   -0.006369   0.118340   0.186767   0.320564
     5  C   -0.001711   0.009419  -0.298836  -0.332902
     6  C    0.003415  -0.000522   0.696550   0.320669
     7  H   -0.000342   0.006681   0.009615  -0.082942
     8  H   -0.000594   0.035226  -0.025423   0.005030
     9  H   -0.000008   0.001375  -0.273350  -0.082931
    10  N   -0.081176  -0.152153  -0.357373   0.000710
    11  C    0.233070  -0.342437   0.039169   0.002033
    12  C   -0.347029   0.176802   0.044838  -0.000828
    13  C    0.751022  -0.170825  -0.016686   0.000428
    14  C   -1.732486   0.456825   0.005396  -0.000822
    15  C    0.800060  -1.699435  -0.006378   0.002060
    16  H    0.006797   0.005235   0.035173  -0.000380
    17  H   -0.024405   0.006803  -0.000593  -0.000016
    18  H   -0.127323  -0.019457   0.000386   0.000008
    19  H    2.637256  -0.209990   0.001548  -0.000016
    20  H   -0.209990   3.276521  -0.007723  -0.000383
    21  H    0.001548  -0.007723   3.675390   0.005037
    22  O   -0.000016  -0.000383   0.005037   8.713856
 Mulliken charges:
               1
     1  C    0.957357
     2  C    0.295663
     3  C    0.957298
     4  C    1.011938
     5  C   -0.156234
     6  C    1.012240
     7  H   -0.812599
     8  H   -1.044893
     9  H   -0.812517
    10  N    0.149726
    11  C    0.774880
    12  C    1.118280
    13  C    0.360236
    14  C    1.119001
    15  C    0.774756
    16  H   -0.936477
    17  H   -0.746214
    18  H   -0.679064
    19  H   -0.746131
    20  H   -0.936243
    21  H   -1.044324
    22  O   -0.616681
 Sum of Mulliken charges =   0.00000
 Mulliken charges with hydrogens summed into heavy atoms:
               1
     1  C   -0.086966
     2  C    0.295663
     3  C   -0.087595
     4  C    0.199339
     5  C   -0.156234
     6  C    0.199723
    10  N    0.149726
    11  C   -0.161596
    12  C    0.372066
    13  C   -0.318829
    14  C    0.372870
    15  C   -0.161487
    22  O   -0.616681
 Electronic spatial extent (au):  <R**2>=           2816.3786
 Charge=              0.0000 electrons
 Dipole moment (field-independent basis, Debye):
    X=             10.0165    Y=             -0.0026    Z=             -0.0002  Tot=             10.0165
 Quadrupole moment (field-independent basis, Debye-Ang):
   XX=            -98.2251   YY=            -80.4125   ZZ=            -66.6360
   XY=              0.0196   XZ=              0.0013   YZ=             -0.9369
 Traceless Quadrupole moment (field-independent basis, Debye-Ang):
   XX=            -16.4672   YY=              1.3454   ZZ=             15.1218
   XY=              0.0196   XZ=              0.0013   YZ=             -0.9369
 Octapole moment (field-independent basis, Debye-Ang**2):
  XXX=            223.7926  YYY=              0.0114  ZZZ=              0.0039  XYY=             -6.9611
  XXY=             -0.0479  XXZ=              0.0038  XZZ=              5.2165  YZZ=             -0.0021
  YYZ=             -0.0066  XYZ=            -10.3458
 Hexadecapole moment (field-independent basis, Debye-Ang**3):
 XXXX=          -3779.0586 YYYY=           -143.1136 ZZZZ=           -525.9810 XXXY=              0.4562
 XXXZ=              0.0262 YYYX=             -0.0273 YYYZ=             -0.6333 ZZZX=              0.0042
 ZZZY=             -3.9411 XXYY=           -584.7217 XXZZ=           -565.4802 YYZZ=           -121.7506
 XXYZ=            -14.4515 YYXZ=              0.0019 ZZXY=              0.0120
 N-N= 7.037337105632D+02 E-N=-2.695200074572D+03  KE= 5.511893516295D+02
 1\1\GINC-COMPUTE-0-1\SP\RCAM-B3LYP TD-FC\Aug-CC-pVDZ\C11H9N1O1\TARCIUS
 \27-Sep-2016\0\\# td=(singlets,nstates=6,root=1) cam-b3lyp/aug-cc-pvdz
  nosymm density=all Field=x+0\\Calculo da energia de absorcao com camp
 o eletrico externo\\0,1\C,0,-1.04439826,-0.30285744,-1.18283286\C,0,-0
 .32313355,-0.00067313,-0.00009966\C,0,-1.04402446,0.3012454,1.18301157
 \C,0,-2.4085604,0.31174405,1.18863356\C,0,-3.19405713,0.00041388,0.000
 06979\C,0,-2.40899006,-0.31236602,-1.18836166\H,0,-2.96066341,0.585360
 05,2.08677377\H,0,-0.51043638,0.59471526,2.08755831\H,0,-2.96133107,-0
 .58616242,-2.0862923\N,0,1.08103716,-0.00026429,-0.00023035\C,0,1.7855
 3519,0.32810734,-1.12514988\C,0,3.1627538,0.31163342,-1.14903827\C,0,3
 .88575449,0.00081812,0.00022737\C,0,3.16276473,-0.31092621,1.14912452\
 C,0,1.78550882,-0.32853589,1.12455991\H,0,1.1940131,0.64232828,-1.9765
 5073\H,0,3.66414536,0.5797373,-2.07678437\H,0,4.97326814,0.00144134,0.
 0002752\H,0,3.66394018,-0.57873674,2.07706462\H,0,1.19406384,-0.643347
 56,1.97578287\H,0,-0.51107769,-0.59729812,-2.08721145\O,0,-4.43351266,
 0.00152393,0.00001626\\Version=ES64L-G09RevD.01\HF=-554.2717841\RMSD=7
 .964e-09\Dipole=3.9407832,-0.0010042,-0.0000821\Quadrupole=-12.2429706
 ,1.0002537,11.2427169,0.0145499,0.0009625,-0.6965435\PG=C01 [X(C11H9N1
 O1)]\\@


 THERE IS MORE TO LIFE THAN INCREASING ITS SPEED.

                                       -- GANDHI
 Job cpu time:       0 days  3 hours 12 minutes 31.4 seconds.
 File lengths (MBytes):  RWF=    241 Int=      0 D2E=      0 Chk=     35 Scr=      1
 Normal termination of Gaussian 09 at Tue Sep 27 08:48:17 2016.
